ITEM: TIMESTEP
0
ITEM: NUMBER OF ATOMS
1620
ITEM: BOX BOUNDS pp pp pp
-2.5000000000000000e+001 2.5000000000000000e+001
-2.1454482671904334e+001 2.2320508075688771e+001
-5.0000000000000000e+001 5.0000000000000000e+001
ITEM: ATOMS id c_1 c_2 
1 0 3.9443e-027 
21 0 3.9443e-027 
41 0 3.9443e-027 
61 0 3.9443e-027 
81 0 3.9443e-027 
101 0 3.9443e-027 
121 0 3.9443e-027 
141 0 3.9443e-027 
161 0 3.9443e-027 
181 0 3.9443e-027 
201 0 3.9443e-027 
221 0 3.9443e-027 
241 0 3.9443e-027 
261 0 3.9443e-027 
281 0 3.9443e-027 
301 0 3.9443e-027 
321 0 3.9443e-027 
341 0 3.9443e-027 
361 0 3.9443e-027 
381 0 3.9443e-027 
401 0 3.9443e-027 
421 0 3.9443e-027 
441 0 3.9443e-027 
461 0 3.9443e-027 
481 0 3.9443e-027 
501 0 3.9443e-027 
521 0 3.9443e-027 
541 0 3.9443e-027 
561 0 3.9443e-027 
581 0 3.9443e-027 
601 0 3.9443e-027 
621 0 3.9443e-027 
641 0 3.9443e-027 
661 0 3.9443e-027 
681 0 3.9443e-027 
701 0 3.9443e-027 
721 0 3.9443e-027 
741 0 3.9443e-027 
761 0 3.9443e-027 
781 0 3.9443e-027 
801 0 1.19562e-026 
821 0 2.39123e-026 
841 0 2.39123e-026 
861 0 2.39123e-026 
881 0 2.39123e-026 
901 0 2.39123e-026 
921 0 2.39123e-026 
941 0 2.39123e-026 
961 0 2.39123e-026 
981 0 2.39123e-026 
1001 0 2.39123e-026 
1021 0 2.39123e-026 
1041 0 2.39123e-026 
1061 0 2.39123e-026 
1081 0 2.39123e-026 
1101 0 2.39123e-026 
1121 0 2.39123e-026 
1141 0 2.39123e-026 
1161 0 2.39123e-026 
1181 0 2.39123e-026 
1201 0 2.39123e-026 
1221 0 2.39123e-026 
1241 0 2.39123e-026 
1261 0 2.39123e-026 
1281 0 2.39123e-026 
1301 0 2.39123e-026 
1321 0 2.39123e-026 
1341 0 2.39123e-026 
1361 0 2.39123e-026 
1381 0 2.39123e-026 
1401 0 2.39123e-026 
1421 0 2.39123e-026 
1441 0 2.39123e-026 
1461 0 2.39123e-026 
1481 0 2.39123e-026 
1501 0 2.39123e-026 
1521 0 2.39123e-026 
1541 0 2.39123e-026 
1561 0 2.39123e-026 
1581 0 2.39123e-026 
1601 0 1.19562e-026 
2 0 2.39123e-026 
22 0 2.39123e-026 
42 0 2.39123e-026 
62 0 2.39123e-026 
82 0 2.39123e-026 
102 0 2.39123e-026 
122 0 2.39123e-026 
142 0 2.39123e-026 
162 0 2.39123e-026 
182 0 2.39123e-026 
202 0 2.39123e-026 
222 0 2.39123e-026 
242 0 2.39123e-026 
262 0 2.39123e-026 
282 0 2.39123e-026 
302 0 2.39123e-026 
322 0 2.39123e-026 
342 0 2.39123e-026 
362 0 2.39123e-026 
382 0 2.39123e-026 
402 0 2.39123e-026 
422 0 2.39123e-026 
442 0 2.39123e-026 
462 0 2.39123e-026 
482 0 2.39123e-026 
502 0 2.39123e-026 
522 0 2.39123e-026 
542 0 2.39123e-026 
562 0 2.39123e-026 
582 0 2.39123e-026 
602 0 2.39123e-026 
622 0 2.39123e-026 
642 0 2.39123e-026 
662 0 2.39123e-026 
682 0 2.39123e-026 
702 0 2.39123e-026 
722 0 2.39123e-026 
742 0 2.39123e-026 
762 0 2.39123e-026 
782 0 2.39123e-026 
802 0 3.9443e-027 
822 0 7.88861e-027 
842 0 7.88861e-027 
862 0 7.88861e-027 
882 0 7.88861e-027 
902 0 7.88861e-027 
922 0 7.88861e-027 
942 0 7.88861e-027 
962 0 7.88861e-027 
982 0 7.88861e-027 
1002 0 7.88861e-027 
1022 0 7.88861e-027 
1042 0 7.88861e-027 
1062 0 7.88861e-027 
1082 0 7.88861e-027 
1102 0 7.88861e-027 
1122 0 7.88861e-027 
1142 0 7.88861e-027 
1162 0 7.88861e-027 
1182 0 7.88861e-027 
1202 0 7.88861e-027 
1222 0 7.88861e-027 
1242 0 7.88861e-027 
1262 0 7.88861e-027 
1282 0 7.88861e-027 
1302 0 7.88861e-027 
1322 0 7.88861e-027 
1342 0 7.88861e-027 
1362 0 7.88861e-027 
1382 0 7.88861e-027 
1402 0 7.88861e-027 
1422 0 7.88861e-027 
1442 0 7.88861e-027 
1462 0 7.88861e-027 
1482 0 7.88861e-027 
1502 0 7.88861e-027 
1522 0 7.88861e-027 
1542 0 7.88861e-027 
1562 0 7.88861e-027 
1582 0 7.88861e-027 
1602 0 3.9443e-027 
3 0 2.39123e-026 
23 0 2.39123e-026 
43 0 2.39123e-026 
63 0 2.39123e-026 
83 0 2.39123e-026 
103 0 2.39123e-026 
123 0 2.39123e-026 
143 0 2.39123e-026 
163 0 2.39123e-026 
183 0 2.39123e-026 
203 0 2.39123e-026 
223 0 2.39123e-026 
243 0 2.39123e-026 
263 0 2.39123e-026 
283 0 2.39123e-026 
303 0 2.39123e-026 
323 0 2.39123e-026 
343 0 2.39123e-026 
363 0 2.39123e-026 
383 0 2.39123e-026 
403 0 2.39123e-026 
423 0 2.39123e-026 
443 0 2.39123e-026 
463 0 2.39123e-026 
483 0 2.39123e-026 
503 0 2.39123e-026 
523 0 2.39123e-026 
543 0 2.39123e-026 
563 0 2.39123e-026 
583 0 2.39123e-026 
603 0 2.39123e-026 
623 0 2.39123e-026 
643 0 2.39123e-026 
663 0 2.39123e-026 
683 0 2.39123e-026 
703 0 2.39123e-026 
723 0 2.39123e-026 
743 0 2.39123e-026 
763 0 2.39123e-026 
783 0 2.39123e-026 
803 0 1.19562e-026 
823 0 2.39123e-026 
843 0 2.39123e-026 
863 0 2.39123e-026 
883 0 2.39123e-026 
903 0 2.39123e-026 
923 0 2.39123e-026 
943 0 2.39123e-026 
963 0 2.39123e-026 
983 0 2.39123e-026 
1003 0 2.39123e-026 
1023 0 2.39123e-026 
1043 0 2.39123e-026 
1063 0 2.39123e-026 
1083 0 2.39123e-026 
1103 0 2.39123e-026 
1123 0 2.39123e-026 
1143 0 2.39123e-026 
1163 0 2.39123e-026 
1183 0 2.39123e-026 
1203 0 2.39123e-026 
1223 0 2.39123e-026 
1243 0 2.39123e-026 
1263 0 2.39123e-026 
1283 0 2.39123e-026 
1303 0 2.39123e-026 
1323 0 2.39123e-026 
1343 0 2.39123e-026 
1363 0 2.39123e-026 
1383 0 2.39123e-026 
1403 0 2.39123e-026 
1423 0 2.39123e-026 
1443 0 2.39123e-026 
1463 0 2.39123e-026 
1483 0 2.39123e-026 
1503 0 2.39123e-026 
1523 0 2.39123e-026 
1543 0 2.39123e-026 
1563 0 2.39123e-026 
1583 0 2.39123e-026 
1603 0 1.19562e-026 
4 0 2.39123e-026 
24 0 2.39123e-026 
44 0 2.39123e-026 
64 0 2.39123e-026 
84 0 2.39123e-026 
104 0 2.39123e-026 
124 0 2.39123e-026 
144 0 2.39123e-026 
164 0 2.39123e-026 
184 0 2.39123e-026 
204 0 2.39123e-026 
224 0 2.39123e-026 
244 0 2.39123e-026 
264 0 2.39123e-026 
284 0 2.39123e-026 
304 0 2.39123e-026 
324 0 2.39123e-026 
344 0 2.39123e-026 
364 0 2.39123e-026 
384 0 2.39123e-026 
404 0 2.39123e-026 
424 0 2.39123e-026 
444 0 2.39123e-026 
464 0 2.39123e-026 
484 0 2.39123e-026 
504 0 2.39123e-026 
524 0 2.39123e-026 
544 0 2.39123e-026 
564 0 2.39123e-026 
584 0 2.39123e-026 
604 0 2.39123e-026 
624 0 2.39123e-026 
644 0 2.39123e-026 
664 0 2.39123e-026 
684 0 2.39123e-026 
704 0 2.39123e-026 
724 0 2.39123e-026 
744 0 2.39123e-026 
764 0 2.39123e-026 
784 0 2.39123e-026 
804 0 1.19562e-026 
824 0 2.39123e-026 
844 0 2.39123e-026 
864 0 2.39123e-026 
884 0 2.39123e-026 
904 0 2.39123e-026 
924 0 2.39123e-026 
944 0 2.39123e-026 
964 0 2.39123e-026 
984 0 2.39123e-026 
1004 0 2.39123e-026 
1024 0 2.39123e-026 
1044 0 2.39123e-026 
1064 0 2.39123e-026 
1084 0 2.39123e-026 
1104 0 2.39123e-026 
1124 0 2.39123e-026 
1144 0 2.39123e-026 
1164 0 2.39123e-026 
1184 0 2.39123e-026 
1204 0 2.39123e-026 
1224 0 2.39123e-026 
1244 0 2.39123e-026 
1264 0 2.39123e-026 
1284 0 2.39123e-026 
1304 0 2.39123e-026 
1324 0 2.39123e-026 
1344 0 2.39123e-026 
1364 0 2.39123e-026 
1384 0 2.39123e-026 
1404 0 2.39123e-026 
1424 0 2.39123e-026 
1444 0 2.39123e-026 
1464 0 2.39123e-026 
1484 0 2.39123e-026 
1504 0 2.39123e-026 
1524 0 2.39123e-026 
1544 0 2.39123e-026 
1564 0 2.39123e-026 
1584 0 2.39123e-026 
1604 0 1.19562e-026 
5 0 7.88861e-027 
25 0 7.88861e-027 
45 0 7.88861e-027 
65 0 7.88861e-027 
85 0 7.88861e-027 
105 0 7.88861e-027 
125 0 7.88861e-027 
145 0 7.88861e-027 
165 0 7.88861e-027 
185 0 7.88861e-027 
205 0 7.88861e-027 
225 0 7.88861e-027 
245 0 7.88861e-027 
265 0 7.88861e-027 
285 0 7.88861e-027 
305 0 7.88861e-027 
325 0 7.88861e-027 
345 0 7.88861e-027 
365 0 7.88861e-027 
385 0 7.88861e-027 
405 0 7.88861e-027 
425 0 7.88861e-027 
445 0 7.88861e-027 
465 0 7.88861e-027 
485 0 7.88861e-027 
505 0 7.88861e-027 
525 0 7.88861e-027 
545 0 7.88861e-027 
565 0 7.88861e-027 
585 0 7.88861e-027 
605 0 7.88861e-027 
625 0 7.88861e-027 
645 0 7.88861e-027 
665 0 7.88861e-027 
685 0 7.88861e-027 
705 0 7.88861e-027 
725 0 7.88861e-027 
745 0 7.88861e-027 
765 0 7.88861e-027 
785 0 7.88861e-027 
805 0 2.46519e-027 
825 0 4.93038e-027 
845 0 4.93038e-027 
865 0 4.93038e-027 
885 0 4.93038e-027 
905 0 4.93038e-027 
925 0 4.93038e-027 
945 0 4.93038e-027 
965 0 4.93038e-027 
985 0 4.93038e-027 
1005 0 4.93038e-027 
1025 0 4.93038e-027 
1045 0 4.93038e-027 
1065 0 4.93038e-027 
1085 0 4.93038e-027 
1105 0 4.93038e-027 
1125 0 4.93038e-027 
1145 0 4.93038e-027 
1165 0 4.93038e-027 
1185 0 4.93038e-027 
1205 0 4.93038e-027 
1225 0 4.93038e-027 
1245 0 4.93038e-027 
1265 0 4.93038e-027 
1285 0 4.93038e-027 
1305 0 4.93038e-027 
1325 0 4.93038e-027 
1345 0 4.93038e-027 
1365 0 4.93038e-027 
1385 0 4.93038e-027 
1405 0 4.93038e-027 
1425 0 4.93038e-027 
1445 0 4.93038e-027 
1465 0 4.93038e-027 
1485 0 4.93038e-027 
1505 0 4.93038e-027 
1525 0 4.93038e-027 
1545 0 4.93038e-027 
1565 0 4.93038e-027 
1585 0 4.93038e-027 
1605 0 2.46519e-027 
6 0 1.97215e-027 
26 0 1.97215e-027 
46 0 1.97215e-027 
66 0 1.97215e-027 
86 0 1.97215e-027 
106 0 1.97215e-027 
126 0 1.97215e-027 
146 0 1.97215e-027 
166 0 1.97215e-027 
186 0 1.97215e-027 
206 0 1.97215e-027 
226 0 1.97215e-027 
246 0 1.97215e-027 
266 0 1.97215e-027 
286 0 1.97215e-027 
306 0 1.97215e-027 
326 0 1.97215e-027 
346 0 1.97215e-027 
366 0 1.97215e-027 
386 0 1.97215e-027 
406 0 1.97215e-027 
426 0 1.97215e-027 
446 0 1.97215e-027 
466 0 1.97215e-027 
486 0 1.97215e-027 
506 0 1.97215e-027 
526 0 1.97215e-027 
546 0 1.97215e-027 
566 0 1.97215e-027 
586 0 1.97215e-027 
606 0 1.97215e-027 
626 0 1.97215e-027 
646 0 1.97215e-027 
666 0 1.97215e-027 
686 0 1.97215e-027 
706 0 1.97215e-027 
726 0 1.97215e-027 
746 0 1.97215e-027 
766 0 1.97215e-027 
786 0 1.97215e-027 
806 0 9.86076e-028 
826 0 1.97215e-027 
846 0 1.97215e-027 
866 0 1.97215e-027 
886 0 1.97215e-027 
906 0 1.97215e-027 
926 0 1.97215e-027 
946 0 1.97215e-027 
966 0 1.97215e-027 
986 0 1.97215e-027 
1006 0 1.97215e-027 
1026 0 1.97215e-027 
1046 0 1.97215e-027 
1066 0 1.97215e-027 
1086 0 1.97215e-027 
1106 0 1.97215e-027 
1126 0 1.97215e-027 
1146 0 1.97215e-027 
1166 0 1.97215e-027 
1186 0 1.97215e-027 
1206 0 1.97215e-027 
1226 0 1.97215e-027 
1246 0 1.97215e-027 
1266 0 1.97215e-027 
1286 0 1.97215e-027 
1306 0 1.97215e-027 
1326 0 1.97215e-027 
1346 0 1.97215e-027 
1366 0 1.97215e-027 
1386 0 1.97215e-027 
1406 0 1.97215e-027 
1426 0 1.97215e-027 
1446 0 1.97215e-027 
1466 0 1.97215e-027 
1486 0 1.97215e-027 
1506 0 1.97215e-027 
1526 0 1.97215e-027 
1546 0 1.97215e-027 
1566 0 1.97215e-027 
1586 0 1.97215e-027 
1606 0 9.86076e-028 
7 0 1.97215e-027 
27 0 1.97215e-027 
47 0 1.97215e-027 
67 0 1.97215e-027 
87 0 1.97215e-027 
107 0 1.97215e-027 
127 0 1.97215e-027 
147 0 1.97215e-027 
167 0 1.97215e-027 
187 0 1.97215e-027 
207 0 1.97215e-027 
227 0 1.97215e-027 
247 0 1.97215e-027 
267 0 1.97215e-027 
287 0 1.97215e-027 
307 0 1.97215e-027 
327 0 1.97215e-027 
347 0 1.97215e-027 
367 0 1.97215e-027 
387 0 1.97215e-027 
407 0 1.97215e-027 
427 0 1.97215e-027 
447 0 1.97215e-027 
467 0 1.97215e-027 
487 0 1.97215e-027 
507 0 1.97215e-027 
527 0 1.97215e-027 
547 0 1.97215e-027 
567 0 1.97215e-027 
587 0 1.97215e-027 
607 0 1.97215e-027 
627 0 1.97215e-027 
647 0 1.97215e-027 
667 0 1.97215e-027 
687 0 1.97215e-027 
707 0 1.97215e-027 
727 0 1.97215e-027 
747 0 1.97215e-027 
767 0 1.97215e-027 
787 0 1.97215e-027 
807 0 2.46519e-027 
827 0 4.93038e-027 
847 0 4.93038e-027 
867 0 4.93038e-027 
887 0 4.93038e-027 
907 0 4.93038e-027 
927 0 4.93038e-027 
947 0 4.93038e-027 
967 0 4.93038e-027 
987 0 4.93038e-027 
1007 0 4.93038e-027 
1027 0 4.93038e-027 
1047 0 4.93038e-027 
1067 0 4.93038e-027 
1087 0 4.93038e-027 
1107 0 4.93038e-027 
1127 0 4.93038e-027 
1147 0 4.93038e-027 
1167 0 4.93038e-027 
1187 0 4.93038e-027 
1207 0 4.93038e-027 
1227 0 4.93038e-027 
1247 0 4.93038e-027 
1267 0 4.93038e-027 
1287 0 4.93038e-027 
1307 0 4.93038e-027 
1327 0 4.93038e-027 
1347 0 4.93038e-027 
1367 0 4.93038e-027 
1387 0 4.93038e-027 
1407 0 4.93038e-027 
1427 0 4.93038e-027 
1447 0 4.93038e-027 
1467 0 4.93038e-027 
1487 0 4.93038e-027 
1507 0 4.93038e-027 
1527 0 4.93038e-027 
1547 0 4.93038e-027 
1567 0 4.93038e-027 
1587 0 4.93038e-027 
1607 0 2.46519e-027 
8 0 4.93038e-027 
28 0 4.93038e-027 
48 0 4.93038e-027 
68 0 4.93038e-027 
88 0 4.93038e-027 
108 0 4.93038e-027 
128 0 4.93038e-027 
148 0 4.93038e-027 
168 0 4.93038e-027 
188 0 4.93038e-027 
208 0 4.93038e-027 
228 0 4.93038e-027 
248 0 4.93038e-027 
268 0 4.93038e-027 
288 0 4.93038e-027 
308 0 4.93038e-027 
328 0 4.93038e-027 
348 0 4.93038e-027 
368 0 4.93038e-027 
388 0 4.93038e-027 
408 0 4.93038e-027 
428 0 4.93038e-027 
448 0 4.93038e-027 
468 0 4.93038e-027 
488 0 4.93038e-027 
508 0 4.93038e-027 
528 0 4.93038e-027 
548 0 4.93038e-027 
568 0 4.93038e-027 
588 0 4.93038e-027 
608 0 4.93038e-027 
628 0 4.93038e-027 
648 0 4.93038e-027 
668 0 4.93038e-027 
688 0 4.93038e-027 
708 0 4.93038e-027 
728 0 4.93038e-027 
748 0 4.93038e-027 
768 0 4.93038e-027 
788 0 4.93038e-027 
808 1.64346e-029 9.86076e-028 
828 3.28692e-029 1.97215e-027 
848 3.28692e-029 1.97215e-027 
868 3.28692e-029 1.97215e-027 
888 3.28692e-029 1.97215e-027 
908 3.28692e-029 1.97215e-027 
928 3.28692e-029 1.97215e-027 
948 3.28692e-029 1.97215e-027 
968 3.28692e-029 1.97215e-027 
988 3.28692e-029 1.97215e-027 
1008 3.28692e-029 1.97215e-027 
1028 3.28692e-029 1.97215e-027 
1048 3.28692e-029 1.97215e-027 
1068 3.28692e-029 1.97215e-027 
1088 3.28692e-029 1.97215e-027 
1108 3.28692e-029 1.97215e-027 
1128 3.28692e-029 1.97215e-027 
1148 3.28692e-029 1.97215e-027 
1168 3.28692e-029 1.97215e-027 
1188 3.28692e-029 1.97215e-027 
1208 3.28692e-029 1.97215e-027 
1228 3.28692e-029 1.97215e-027 
1248 3.28692e-029 1.97215e-027 
1268 3.28692e-029 1.97215e-027 
1288 3.28692e-029 1.97215e-027 
1308 3.28692e-029 1.97215e-027 
1328 3.28692e-029 1.97215e-027 
1348 3.28692e-029 1.97215e-027 
1368 3.28692e-029 1.97215e-027 
1388 3.28692e-029 1.97215e-027 
1408 3.28692e-029 1.97215e-027 
1428 3.28692e-029 1.97215e-027 
1448 3.28692e-029 1.97215e-027 
1468 3.28692e-029 1.97215e-027 
1488 3.28692e-029 1.97215e-027 
1508 3.28692e-029 1.97215e-027 
1528 3.28692e-029 1.97215e-027 
1548 3.28692e-029 1.97215e-027 
1568 3.28692e-029 1.97215e-027 
1588 3.28692e-029 1.97215e-027 
1608 1.64346e-029 9.86076e-028 
9 3.28692e-029 1.97215e-027 
29 3.28692e-029 1.97215e-027 
49 3.28692e-029 1.97215e-027 
69 3.28692e-029 1.97215e-027 
89 3.28692e-029 1.97215e-027 
109 3.28692e-029 1.97215e-027 
129 3.28692e-029 1.97215e-027 
149 3.28692e-029 1.97215e-027 
169 3.28692e-029 1.97215e-027 
189 3.28692e-029 1.97215e-027 
209 3.28692e-029 1.97215e-027 
229 3.28692e-029 1.97215e-027 
249 3.28692e-029 1.97215e-027 
269 3.28692e-029 1.97215e-027 
289 3.28692e-029 1.97215e-027 
309 3.28692e-029 1.97215e-027 
329 3.28692e-029 1.97215e-027 
349 3.28692e-029 1.97215e-027 
369 3.28692e-029 1.97215e-027 
389 3.28692e-029 1.97215e-027 
409 3.28692e-029 1.97215e-027 
429 3.28692e-029 1.97215e-027 
449 3.28692e-029 1.97215e-027 
469 3.28692e-029 1.97215e-027 
489 3.28692e-029 1.97215e-027 
509 3.28692e-029 1.97215e-027 
529 3.28692e-029 1.97215e-027 
549 3.28692e-029 1.97215e-027 
569 3.28692e-029 1.97215e-027 
589 3.28692e-029 1.97215e-027 
609 3.28692e-029 1.97215e-027 
629 3.28692e-029 1.97215e-027 
649 3.28692e-029 1.97215e-027 
669 3.28692e-029 1.97215e-027 
689 3.28692e-029 1.97215e-027 
709 3.28692e-029 1.97215e-027 
729 3.28692e-029 1.97215e-027 
749 3.28692e-029 1.97215e-027 
769 3.28692e-029 1.97215e-027 
789 3.28692e-029 1.97215e-027 
809 1.64346e-029 6.16298e-028 
829 3.28692e-029 1.2326e-027 
849 3.28692e-029 1.2326e-027 
869 3.28692e-029 1.2326e-027 
889 3.28692e-029 1.2326e-027 
909 3.28692e-029 1.2326e-027 
929 3.28692e-029 1.2326e-027 
949 3.28692e-029 1.2326e-027 
969 3.28692e-029 1.2326e-027 
989 3.28692e-029 1.2326e-027 
1009 3.28692e-029 1.2326e-027 
1029 3.28692e-029 1.2326e-027 
1049 3.28692e-029 1.2326e-027 
1069 3.28692e-029 1.2326e-027 
1089 3.28692e-029 1.2326e-027 
1109 3.28692e-029 1.2326e-027 
1129 3.28692e-029 1.2326e-027 
1149 3.28692e-029 1.2326e-027 
1169 3.28692e-029 1.2326e-027 
1189 3.28692e-029 1.2326e-027 
1209 3.28692e-029 1.2326e-027 
1229 3.28692e-029 1.2326e-027 
1249 3.28692e-029 1.2326e-027 
1269 3.28692e-029 1.2326e-027 
1289 3.28692e-029 1.2326e-027 
1309 3.28692e-029 1.2326e-027 
1329 3.28692e-029 1.2326e-027 
1349 3.28692e-029 1.2326e-027 
1369 3.28692e-029 1.2326e-027 
1389 3.28692e-029 1.2326e-027 
1409 3.28692e-029 1.2326e-027 
1429 3.28692e-029 1.2326e-027 
1449 3.28692e-029 1.2326e-027 
1469 3.28692e-029 1.2326e-027 
1489 3.28692e-029 1.2326e-027 
1509 3.28692e-029 1.2326e-027 
1529 3.28692e-029 1.2326e-027 
1549 3.28692e-029 1.2326e-027 
1569 3.28692e-029 1.2326e-027 
1589 3.28692e-029 1.2326e-027 
1609 1.64346e-029 6.16298e-028 
10 0 4.93038e-028 
30 0 4.93038e-028 
50 0 4.93038e-028 
70 0 4.93038e-028 
90 0 4.93038e-028 
110 0 4.93038e-028 
130 0 4.93038e-028 
150 0 4.93038e-028 
170 0 4.93038e-028 
190 0 4.93038e-028 
210 0 4.93038e-028 
230 0 4.93038e-028 
250 0 4.93038e-028 
270 0 4.93038e-028 
290 0 4.93038e-028 
310 0 4.93038e-028 
330 0 4.93038e-028 
350 0 4.93038e-028 
370 0 4.93038e-028 
390 0 4.93038e-028 
410 0 4.93038e-028 
430 0 4.93038e-028 
450 0 4.93038e-028 
470 0 4.93038e-028 
490 0 4.93038e-028 
510 0 4.93038e-028 
530 0 4.93038e-028 
550 0 4.93038e-028 
570 0 4.93038e-028 
590 0 4.93038e-028 
610 0 4.93038e-028 
630 0 4.93038e-028 
650 0 4.93038e-028 
670 0 4.93038e-028 
690 0 4.93038e-028 
710 0 4.93038e-028 
730 0 4.93038e-028 
750 0 4.93038e-028 
770 0 4.93038e-028 
790 0 4.93038e-028 
810 0 2.46519e-028 
830 0 4.93038e-028 
850 0 4.93038e-028 
870 0 4.93038e-028 
890 0 4.93038e-028 
910 0 4.93038e-028 
930 0 4.93038e-028 
950 0 4.93038e-028 
970 0 4.93038e-028 
990 0 4.93038e-028 
1010 0 4.93038e-028 
1030 0 4.93038e-028 
1050 0 4.93038e-028 
1070 0 4.93038e-028 
1090 0 4.93038e-028 
1110 0 4.93038e-028 
1130 0 4.93038e-028 
1150 0 4.93038e-028 
1170 0 4.93038e-028 
1190 0 4.93038e-028 
1210 0 4.93038e-028 
1230 0 4.93038e-028 
1250 0 4.93038e-028 
1270 0 4.93038e-028 
1290 0 4.93038e-028 
1310 0 4.93038e-028 
1330 0 4.93038e-028 
1350 0 4.93038e-028 
1370 0 4.93038e-028 
1390 0 4.93038e-028 
1410 0 4.93038e-028 
1430 0 4.93038e-028 
1450 0 4.93038e-028 
1470 0 4.93038e-028 
1490 0 4.93038e-028 
1510 0 4.93038e-028 
1530 0 4.93038e-028 
1550 0 4.93038e-028 
1570 0 4.93038e-028 
1590 0 4.93038e-028 
1610 0 2.46519e-028 
11 0 4.93038e-028 
31 0 4.93038e-028 
51 0 4.93038e-028 
71 0 4.93038e-028 
91 0 4.93038e-028 
111 0 4.93038e-028 
131 0 4.93038e-028 
151 0 4.93038e-028 
171 0 4.93038e-028 
191 0 4.93038e-028 
211 0 4.93038e-028 
231 0 4.93038e-028 
251 0 4.93038e-028 
271 0 4.93038e-028 
291 0 4.93038e-028 
311 0 4.93038e-028 
331 0 4.93038e-028 
351 0 4.93038e-028 
371 0 4.93038e-028 
391 0 4.93038e-028 
411 0 4.93038e-028 
431 0 4.93038e-028 
451 0 4.93038e-028 
471 0 4.93038e-028 
491 0 4.93038e-028 
511 0 4.93038e-028 
531 0 4.93038e-028 
551 0 4.93038e-028 
571 0 4.93038e-028 
591 0 4.93038e-028 
611 0 4.93038e-028 
631 0 4.93038e-028 
651 0 4.93038e-028 
671 0 4.93038e-028 
691 0 4.93038e-028 
711 0 4.93038e-028 
731 0 4.93038e-028 
751 0 4.93038e-028 
771 0 4.93038e-028 
791 0 4.93038e-028 
811 1.64346e-029 6.16298e-028 
831 3.28692e-029 1.2326e-027 
851 3.28692e-029 1.2326e-027 
871 3.28692e-029 1.2326e-027 
891 3.28692e-029 1.2326e-027 
911 3.28692e-029 1.2326e-027 
931 3.28692e-029 1.2326e-027 
951 3.28692e-029 1.2326e-027 
971 3.28692e-029 1.2326e-027 
991 3.28692e-029 1.2326e-027 
1011 3.28692e-029 1.2326e-027 
1031 3.28692e-029 1.2326e-027 
1051 3.28692e-029 1.2326e-027 
1071 3.28692e-029 1.2326e-027 
1091 3.28692e-029 1.2326e-027 
1111 3.28692e-029 1.2326e-027 
1131 3.28692e-029 1.2326e-027 
1151 3.28692e-029 1.2326e-027 
1171 3.28692e-029 1.2326e-027 
1191 3.28692e-029 1.2326e-027 
1211 3.28692e-029 1.2326e-027 
1231 3.28692e-029 1.2326e-027 
1251 3.28692e-029 1.2326e-027 
1271 3.28692e-029 1.2326e-027 
1291 3.28692e-029 1.2326e-027 
1311 3.28692e-029 1.2326e-027 
1331 3.28692e-029 1.2326e-027 
1351 3.28692e-029 1.2326e-027 
1371 3.28692e-029 1.2326e-027 
1391 3.28692e-029 1.2326e-027 
1411 3.28692e-029 1.2326e-027 
1431 3.28692e-029 1.2326e-027 
1451 3.28692e-029 1.2326e-027 
1471 3.28692e-029 1.2326e-027 
1491 3.28692e-029 1.2326e-027 
1511 3.28692e-029 1.2326e-027 
1531 3.28692e-029 1.2326e-027 
1551 3.28692e-029 1.2326e-027 
1571 3.28692e-029 1.2326e-027 
1591 3.28692e-029 1.2326e-027 
1611 1.64346e-029 6.16298e-028 
12 3.28692e-029 1.97215e-027 
32 3.28692e-029 1.97215e-027 
52 3.28692e-029 1.97215e-027 
72 3.28692e-029 1.97215e-027 
92 3.28692e-029 1.97215e-027 
112 3.28692e-029 1.97215e-027 
132 3.28692e-029 1.97215e-027 
152 3.28692e-029 1.97215e-027 
172 3.28692e-029 1.97215e-027 
192 3.28692e-029 1.97215e-027 
212 3.28692e-029 1.97215e-027 
232 3.28692e-029 1.97215e-027 
252 3.28692e-029 1.97215e-027 
272 3.28692e-029 1.97215e-027 
292 3.28692e-029 1.97215e-027 
312 3.28692e-029 1.97215e-027 
332 3.28692e-029 1.97215e-027 
352 3.28692e-029 1.97215e-027 
372 3.28692e-029 1.97215e-027 
392 3.28692e-029 1.97215e-027 
412 3.28692e-029 1.97215e-027 
432 3.28692e-029 1.97215e-027 
452 3.28692e-029 1.97215e-027 
472 3.28692e-029 1.97215e-027 
492 3.28692e-029 1.97215e-027 
512 3.28692e-029 1.97215e-027 
532 3.28692e-029 1.97215e-027 
552 3.28692e-029 1.97215e-027 
572 3.28692e-029 1.97215e-027 
592 3.28692e-029 1.97215e-027 
612 3.28692e-029 1.97215e-027 
632 3.28692e-029 1.97215e-027 
652 3.28692e-029 1.97215e-027 
672 3.28692e-029 1.97215e-027 
692 3.28692e-029 1.97215e-027 
712 3.28692e-029 1.97215e-027 
732 3.28692e-029 1.97215e-027 
752 3.28692e-029 1.97215e-027 
772 3.28692e-029 1.97215e-027 
792 3.28692e-029 1.97215e-027 
812 1.64346e-029 9.86076e-028 
832 3.28692e-029 1.97215e-027 
852 3.28692e-029 1.97215e-027 
872 3.28692e-029 1.97215e-027 
892 3.28692e-029 1.97215e-027 
912 3.28692e-029 1.97215e-027 
932 3.28692e-029 1.97215e-027 
952 3.28692e-029 1.97215e-027 
972 3.28692e-029 1.97215e-027 
992 3.28692e-029 1.97215e-027 
1012 3.28692e-029 1.97215e-027 
1032 3.28692e-029 1.97215e-027 
1052 3.28692e-029 1.97215e-027 
1072 3.28692e-029 1.97215e-027 
1092 3.28692e-029 1.97215e-027 
1112 3.28692e-029 1.97215e-027 
1132 3.28692e-029 1.97215e-027 
1152 3.28692e-029 1.97215e-027 
1172 3.28692e-029 1.97215e-027 
1192 3.28692e-029 1.97215e-027 
1212 3.28692e-029 1.97215e-027 
1232 3.28692e-029 1.97215e-027 
1252 3.28692e-029 1.97215e-027 
1272 3.28692e-029 1.97215e-027 
1292 3.28692e-029 1.97215e-027 
1312 3.28692e-029 1.97215e-027 
1332 3.28692e-029 1.97215e-027 
1352 3.28692e-029 1.97215e-027 
1372 3.28692e-029 1.97215e-027 
1392 3.28692e-029 1.97215e-027 
1412 3.28692e-029 1.97215e-027 
1432 3.28692e-029 1.97215e-027 
1452 3.28692e-029 1.97215e-027 
1472 3.28692e-029 1.97215e-027 
1492 3.28692e-029 1.97215e-027 
1512 3.28692e-029 1.97215e-027 
1532 3.28692e-029 1.97215e-027 
1552 3.28692e-029 1.97215e-027 
1572 3.28692e-029 1.97215e-027 
1592 3.28692e-029 1.97215e-027 
1612 1.64346e-029 9.86076e-028 
13 0 4.93038e-027 
33 0 4.93038e-027 
53 0 4.93038e-027 
73 0 4.93038e-027 
93 0 4.93038e-027 
113 0 4.93038e-027 
133 0 4.93038e-027 
153 0 4.93038e-027 
173 0 4.93038e-027 
193 0 4.93038e-027 
213 0 4.93038e-027 
233 0 4.93038e-027 
253 0 4.93038e-027 
273 0 4.93038e-027 
293 0 4.93038e-027 
313 0 4.93038e-027 
333 0 4.93038e-027 
353 0 4.93038e-027 
373 0 4.93038e-027 
393 0 4.93038e-027 
413 0 4.93038e-027 
433 0 4.93038e-027 
453 0 4.93038e-027 
473 0 4.93038e-027 
493 0 4.93038e-027 
513 0 4.93038e-027 
533 0 4.93038e-027 
553 0 4.93038e-027 
573 0 4.93038e-027 
593 0 4.93038e-027 
613 0 4.93038e-027 
633 0 4.93038e-027 
653 0 4.93038e-027 
673 0 4.93038e-027 
693 0 4.93038e-027 
713 0 4.93038e-027 
733 0 4.93038e-027 
753 0 4.93038e-027 
773 0 4.93038e-027 
793 0 4.93038e-027 
813 0 2.46519e-027 
833 0 4.93038e-027 
853 0 4.93038e-027 
873 0 4.93038e-027 
893 0 4.93038e-027 
913 0 4.93038e-027 
933 0 4.93038e-027 
953 0 4.93038e-027 
973 0 4.93038e-027 
993 0 4.93038e-027 
1013 0 4.93038e-027 
1033 0 4.93038e-027 
1053 0 4.93038e-027 
1073 0 4.93038e-027 
1093 0 4.93038e-027 
1113 0 4.93038e-027 
1133 0 4.93038e-027 
1153 0 4.93038e-027 
1173 0 4.93038e-027 
1193 0 4.93038e-027 
1213 0 4.93038e-027 
1233 0 4.93038e-027 
1253 0 4.93038e-027 
1273 0 4.93038e-027 
1293 0 4.93038e-027 
1313 0 4.93038e-027 
1333 0 4.93038e-027 
1353 0 4.93038e-027 
1373 0 4.93038e-027 
1393 0 4.93038e-027 
1413 0 4.93038e-027 
1433 0 4.93038e-027 
1453 0 4.93038e-027 
1473 0 4.93038e-027 
1493 0 4.93038e-027 
1513 0 4.93038e-027 
1533 0 4.93038e-027 
1553 0 4.93038e-027 
1573 0 4.93038e-027 
1593 0 4.93038e-027 
1613 0 2.46519e-027 
14 0 1.97215e-027 
34 0 1.97215e-027 
54 0 1.97215e-027 
74 0 1.97215e-027 
94 0 1.97215e-027 
114 0 1.97215e-027 
134 0 1.97215e-027 
154 0 1.97215e-027 
174 0 1.97215e-027 
194 0 1.97215e-027 
214 0 1.97215e-027 
234 0 1.97215e-027 
254 0 1.97215e-027 
274 0 1.97215e-027 
294 0 1.97215e-027 
314 0 1.97215e-027 
334 0 1.97215e-027 
354 0 1.97215e-027 
374 0 1.97215e-027 
394 0 1.97215e-027 
414 0 1.97215e-027 
434 0 1.97215e-027 
454 0 1.97215e-027 
474 0 1.97215e-027 
494 0 1.97215e-027 
514 0 1.97215e-027 
534 0 1.97215e-027 
554 0 1.97215e-027 
574 0 1.97215e-027 
594 0 1.97215e-027 
614 0 1.97215e-027 
634 0 1.97215e-027 
654 0 1.97215e-027 
674 0 1.97215e-027 
694 0 1.97215e-027 
714 0 1.97215e-027 
734 0 1.97215e-027 
754 0 1.97215e-027 
774 0 1.97215e-027 
794 0 1.97215e-027 
814 0 9.86076e-028 
834 0 1.97215e-027 
854 0 1.97215e-027 
874 0 1.97215e-027 
894 0 1.97215e-027 
914 0 1.97215e-027 
934 0 1.97215e-027 
954 0 1.97215e-027 
974 0 1.97215e-027 
994 0 1.97215e-027 
1014 0 1.97215e-027 
1034 0 1.97215e-027 
1054 0 1.97215e-027 
1074 0 1.97215e-027 
1094 0 1.97215e-027 
1114 0 1.97215e-027 
1134 0 1.97215e-027 
1154 0 1.97215e-027 
1174 0 1.97215e-027 
1194 0 1.97215e-027 
1214 0 1.97215e-027 
1234 0 1.97215e-027 
1254 0 1.97215e-027 
1274 0 1.97215e-027 
1294 0 1.97215e-027 
1314 0 1.97215e-027 
1334 0 1.97215e-027 
1354 0 1.97215e-027 
1374 0 1.97215e-027 
1394 0 1.97215e-027 
1414 0 1.97215e-027 
1434 0 1.97215e-027 
1454 0 1.97215e-027 
1474 0 1.97215e-027 
1494 0 1.97215e-027 
1514 0 1.97215e-027 
1534 0 1.97215e-027 
1554 0 1.97215e-027 
1574 0 1.97215e-027 
1594 0 1.97215e-027 
1614 0 9.86076e-028 
15 0 1.97215e-027 
35 0 1.97215e-027 
55 0 1.97215e-027 
75 0 1.97215e-027 
95 0 1.97215e-027 
115 0 1.97215e-027 
135 0 1.97215e-027 
155 0 1.97215e-027 
175 0 1.97215e-027 
195 0 1.97215e-027 
215 0 1.97215e-027 
235 0 1.97215e-027 
255 0 1.97215e-027 
275 0 1.97215e-027 
295 0 1.97215e-027 
315 0 1.97215e-027 
335 0 1.97215e-027 
355 0 1.97215e-027 
375 0 1.97215e-027 
395 0 1.97215e-027 
415 0 1.97215e-027 
435 0 1.97215e-027 
455 0 1.97215e-027 
475 0 1.97215e-027 
495 0 1.97215e-027 
515 0 1.97215e-027 
535 0 1.97215e-027 
555 0 1.97215e-027 
575 0 1.97215e-027 
595 0 1.97215e-027 
615 0 1.97215e-027 
635 0 1.97215e-027 
655 0 1.97215e-027 
675 0 1.97215e-027 
695 0 1.97215e-027 
715 0 1.97215e-027 
735 0 1.97215e-027 
755 0 1.97215e-027 
775 0 1.97215e-027 
795 0 1.97215e-027 
815 0 2.46519e-027 
835 0 4.93038e-027 
855 0 4.93038e-027 
875 0 4.93038e-027 
895 0 4.93038e-027 
915 0 4.93038e-027 
935 0 4.93038e-027 
955 0 4.93038e-027 
975 0 4.93038e-027 
995 0 4.93038e-027 
1015 0 4.93038e-027 
1035 0 4.93038e-027 
1055 0 4.93038e-027 
1075 0 4.93038e-027 
1095 0 4.93038e-027 
1115 0 4.93038e-027 
1135 0 4.93038e-027 
1155 0 4.93038e-027 
1175 0 4.93038e-027 
1195 0 4.93038e-027 
1215 0 4.93038e-027 
1235 0 4.93038e-027 
1255 0 4.93038e-027 
1275 0 4.93038e-027 
1295 0 4.93038e-027 
1315 0 4.93038e-027 
1335 0 4.93038e-027 
1355 0 4.93038e-027 
1375 0 4.93038e-027 
1395 0 4.93038e-027 
1415 0 4.93038e-027 
1435 0 4.93038e-027 
1455 0 4.93038e-027 
1475 0 4.93038e-027 
1495 0 4.93038e-027 
1515 0 4.93038e-027 
1535 0 4.93038e-027 
1555 0 4.93038e-027 
1575 0 4.93038e-027 
1595 0 4.93038e-027 
1615 0 2.46519e-027 
16 0 7.88861e-027 
36 0 7.88861e-027 
56 0 7.88861e-027 
76 0 7.88861e-027 
96 0 7.88861e-027 
116 0 7.88861e-027 
136 0 7.88861e-027 
156 0 7.88861e-027 
176 0 7.88861e-027 
196 0 7.88861e-027 
216 0 7.88861e-027 
236 0 7.88861e-027 
256 0 7.88861e-027 
276 0 7.88861e-027 
296 0 7.88861e-027 
316 0 7.88861e-027 
336 0 7.88861e-027 
356 0 7.88861e-027 
376 0 7.88861e-027 
396 0 7.88861e-027 
416 0 7.88861e-027 
436 0 7.88861e-027 
456 0 7.88861e-027 
476 0 7.88861e-027 
496 0 7.88861e-027 
516 0 7.88861e-027 
536 0 7.88861e-027 
556 0 7.88861e-027 
576 0 7.88861e-027 
596 0 7.88861e-027 
616 0 7.88861e-027 
636 0 7.88861e-027 
656 0 7.88861e-027 
676 0 7.88861e-027 
696 0 7.88861e-027 
716 0 7.88861e-027 
736 0 7.88861e-027 
756 0 7.88861e-027 
776 0 7.88861e-027 
796 0 7.88861e-027 
816 0 1.19562e-026 
836 0 2.39123e-026 
856 0 2.39123e-026 
876 0 2.39123e-026 
896 0 2.39123e-026 
916 0 2.39123e-026 
936 0 2.39123e-026 
956 0 2.39123e-026 
976 0 2.39123e-026 
996 0 2.39123e-026 
1016 0 2.39123e-026 
1036 0 2.39123e-026 
1056 0 2.39123e-026 
1076 0 2.39123e-026 
1096 0 2.39123e-026 
1116 0 2.39123e-026 
1136 0 2.39123e-026 
1156 0 2.39123e-026 
1176 0 2.39123e-026 
1196 0 2.39123e-026 
1216 0 2.39123e-026 